Title="tecplot data for time step 1"
variables ="x","y","z","f","d"
ZONE N =24,E =3,datapacking=block
varlocation=([4,6]=cellcentered)
zonetype=febrick
0.00000	0.00421	0.00000	-0.00421	0.00000	0.00421	0.00000	-0.00421	-1.00000	-1.00043	-1.00000	-0.99957	0.00000	-0.00043	0.00000	0.00043	1.00000	1.00043	1.00000	0.99957	0.00000	0.00043	0.00000	-0.00043	
0.00421	0.00000	-0.00421	0.00000	0.00421	0.00000	-0.00421	0.00000	0.00061	0.00000	-0.00061	0.00000	0.00061	0.00000	-0.00061	0.00000	0.00061	0.00000	-0.00061	0.00000	0.00061	0.00000	-0.00061	0.00000	
0.00000	0.00000	0.00000	0.00000	1.00000	1.00000	1.00000	1.00000	0.00000	0.00043	0.00000	-0.00043	1.00000	1.00043	1.00000	0.99957	0.00000	0.00043	0.00000	-0.00043	1.00000	1.00043	1.00000	0.99957	
      -50.00000	       35.35534	       35.35534	
0.00000	0.00000	0.00000	0.00000	0.00000	0.00000	0.00000	0.00000	0.00000	0.00000	0.00000	0.00000	0.00000	0.00000	0.00000	0.00000	0.00000	0.00000	0.00000	0.00000	0.00000	0.00000	0.00000	0.00000	
1 2 3 4
5 6 7 8
9 10 11 12
13 14 15 16
17 18 19 20
21 22 23 24
Title="tecplot data for time step 2"
variables ="x","y","z","f","d"
ZONE N =24,E =3,datapacking=block
varlocation=([4,6]=cellcentered)
zonetype=febrick
0.00000	-0.00421	0.00000	0.00421	0.00089	-0.00332	0.00089	0.00510	-1.00000	-1.00043	-1.00000	-0.99957	0.00089	0.00046	0.00089	0.00132	1.00000	1.00043	1.00000	0.99957	0.00089	0.00132	0.00089	0.00046	
0.00421	0.00000	-0.00421	0.00000	0.00421	0.00000	-0.00421	0.00000	0.00061	0.00000	-0.00061	0.00000	0.00061	0.00000	-0.00061	0.00000	0.00061	0.00000	-0.00061	0.00000	0.00061	0.00000	-0.00061	0.00000	
0.00000	0.00000	0.00000	-0.00000	1.00000	1.00000	1.00000	0.99999	0.00000	0.00043	0.00000	-0.00043	1.00000	1.00043	1.00000	0.99956	0.00000	0.00043	0.00000	-0.00043	1.00000	1.00043	1.00000	0.99956	
     -101.00965	      142.91312	        0.00000	
0.00000	0.00000	0.00000	0.00000	0.00089	0.00089	0.00089	0.00089	0.00000	0.00000	0.00000	0.00000	0.00089	0.00089	0.00089	0.00089	0.00000	0.00000	0.00000	0.00000	0.00089	0.00089	0.00089	0.00089	
1 2 3 4
5 6 7 8
9 10 11 12
13 14 15 16
17 18 19 20
21 22 23 24
Title="tecplot data for time step 3"
variables ="x","y","z","f","d"
ZONE N =24,E =3,datapacking=block
varlocation=([4,6]=cellcentered)
zonetype=febrick
0.00000	-0.00421	0.00000	0.00421	0.00208	-0.00213	0.00208	0.00628	-1.00000	-1.00043	-1.00000	-0.99957	0.00208	0.00165	0.00208	0.00251	1.00000	1.00043	1.00000	0.99957	0.00208	0.00251	0.00208	0.00164	
0.00421	0.00000	-0.00421	0.00000	0.00421	0.00000	-0.00421	0.00000	0.00061	0.00000	-0.00061	0.00000	0.00061	0.00000	-0.00061	0.00000	0.00061	0.00000	-0.00061	0.00000	0.00061	0.00000	-0.00061	0.00000	
0.00000	0.00001	0.00000	-0.00001	0.99998	0.99999	0.99998	0.99998	0.00000	0.00043	0.00000	-0.00043	0.99998	1.00042	0.99998	0.99955	0.00000	0.00043	0.00000	-0.00043	0.99998	1.00042	0.99998	0.99955	
     -202.01751	      285.99456	        0.00000	
0.00000	0.00000	0.00000	0.00000	0.00208	0.00208	0.00208	0.00208	0.00000	0.00000	0.00000	0.00000	0.00208	0.00208	0.00208	0.00208	0.00000	0.00000	0.00000	0.00000	0.00208	0.00208	0.00208	0.00208	
1 2 3 4
5 6 7 8
9 10 11 12
13 14 15 16
17 18 19 20
21 22 23 24
Title="tecplot data for time step 4"
variables ="x","y","z","f","d"
ZONE N =24,E =3,datapacking=block
varlocation=([4,6]=cellcentered)
zonetype=febrick
0.00000	-0.00421	0.00000	0.00421	0.00327	-0.00094	0.00327	0.00747	-1.00000	-1.00043	-1.00000	-0.99957	0.00327	0.00284	0.00327	0.00370	1.00000	1.00043	1.00000	0.99957	0.00327	0.00370	0.00327	0.00283	
0.00421	0.00000	-0.00421	0.00000	0.00421	0.00000	-0.00421	0.00000	0.00061	0.00000	-0.00061	0.00000	0.00061	0.00000	-0.00061	0.00000	0.00061	0.00000	-0.00061	0.00000	0.00061	0.00000	-0.00061	0.00000	
0.00000	0.00001	0.00000	-0.00001	0.99997	0.99999	0.99997	0.99996	0.00000	0.00043	0.00000	-0.00043	0.99997	1.00041	0.99997	0.99954	0.00000	0.00043	0.00000	-0.00043	0.99997	1.00040	0.99997	0.99954	
     -303.02360	      429.24462	        0.00000	
0.00000	0.00000	0.00000	0.00000	0.00327	0.00327	0.00327	0.00327	0.00000	0.00000	0.00000	0.00000	0.00327	0.00327	0.00327	0.00327	0.00000	0.00000	0.00000	0.00000	0.00327	0.00327	0.00327	0.00327	
1 2 3 4
5 6 7 8
9 10 11 12
13 14 15 16
17 18 19 20
21 22 23 24
Title="tecplot data for time step 5"
variables ="x","y","z","f","d"
ZONE N =24,E =3,datapacking=block
varlocation=([4,6]=cellcentered)
zonetype=febrick
0.00000	-0.00421	0.00000	0.00421	0.00446	0.00025	0.00446	0.00867	-1.00000	-1.00043	-1.00000	-0.99957	0.00446	0.00403	0.00446	0.00489	1.00000	1.00043	1.00000	0.99957	0.00446	0.00489	0.00446	0.00403	
0.00421	0.00000	-0.00421	0.00000	0.00421	0.00000	-0.00421	0.00000	0.00061	0.00000	-0.00061	0.00000	0.00061	0.00000	-0.00061	0.00000	0.00061	0.00000	-0.00061	0.00000	0.00061	0.00000	-0.00061	0.00000	
0.00000	0.00002	0.00000	-0.00002	0.99996	0.99998	0.99996	0.99994	0.00000	0.00043	0.00000	-0.00043	0.99996	1.00039	0.99996	0.99953	0.00000	0.00043	0.00000	-0.00043	0.99996	1.00039	0.99996	0.99953	
     -404.02791	      572.66359	        0.00000	
0.00000	0.00000	0.00000	0.00000	0.00446	0.00446	0.00446	0.00446	0.00000	0.00000	0.00000	0.00000	0.00446	0.00446	0.00446	0.00446	0.00000	0.00000	0.00000	0.00000	0.00446	0.00446	0.00446	0.00446	
1 2 3 4
5 6 7 8
9 10 11 12
13 14 15 16
17 18 19 20
21 22 23 24
Title="tecplot data for time step 6"
variables ="x","y","z","f","d"
ZONE N =24,E =3,datapacking=block
varlocation=([4,6]=cellcentered)
zonetype=febrick
0.00000	-0.00421	0.00000	0.00421	0.00565	0.00145	0.00565	0.00986	-1.00000	-1.00043	-1.00000	-0.99957	0.00565	0.00522	0.00565	0.00609	1.00000	1.00043	1.00000	0.99957	0.00565	0.00609	0.00565	0.00522	
0.00421	0.00000	-0.00421	0.00000	0.00421	0.00000	-0.00421	0.00000	0.00061	0.00000	-0.00061	0.00000	0.00061	0.00000	-0.00061	0.00000	0.00061	0.00000	-0.00061	0.00000	0.00061	0.00000	-0.00061	0.00000	
0.00000	0.00002	0.00000	-0.00002	0.99994	0.99997	0.99994	0.99992	0.00000	0.00043	0.00000	-0.00043	0.99994	1.00038	0.99994	0.99951	0.00000	0.00043	0.00000	-0.00043	0.99994	1.00038	0.99994	0.99951	
     -505.03044	      716.25178	        0.00000	
0.00000	0.00000	0.00000	0.00000	0.00566	0.00566	0.00566	0.00566	0.00000	0.00000	0.00000	0.00000	0.00566	0.00566	0.00566	0.00566	0.00000	0.00000	0.00000	0.00000	0.00566	0.00566	0.00566	0.00566	
1 2 3 4
5 6 7 8
9 10 11 12
13 14 15 16
17 18 19 20
21 22 23 24
Title="tecplot data for time step 7"
variables ="x","y","z","f","d"
ZONE N =24,E =3,datapacking=block
varlocation=([4,6]=cellcentered)
zonetype=febrick
0.00000	-0.00421	0.00000	0.00421	0.00685	0.00265	0.00685	0.01106	-1.00000	-1.00043	-1.00000	-0.99957	0.00685	0.00642	0.00685	0.00728	1.00000	1.00043	1.00000	0.99957	0.00685	0.00729	0.00685	0.00642	
0.00421	0.00000	-0.00421	0.00000	0.00421	0.00000	-0.00421	0.00000	0.00061	0.00000	-0.00061	0.00000	0.00061	0.00000	-0.00061	0.00000	0.00061	0.00000	-0.00061	0.00000	0.00061	0.00000	-0.00061	0.00000	
0.00000	0.00003	0.00000	-0.00003	0.99993	0.99996	0.99993	0.99990	0.00000	0.00043	0.00000	-0.00043	0.99993	1.00036	0.99993	0.99949	0.00000	0.00043	0.00000	-0.00043	0.99993	1.00036	0.99993	0.99950	
     -606.03118	      860.00948	        0.00000	
0.00000	0.00000	0.00000	0.00000	0.00685	0.00685	0.00685	0.00685	0.00000	0.00000	0.00000	0.00000	0.00685	0.00685	0.00685	0.00685	0.00000	0.00000	0.00000	0.00000	0.00685	0.00685	0.00685	0.00685	
1 2 3 4
5 6 7 8
9 10 11 12
13 14 15 16
17 18 19 20
21 22 23 24
Title="tecplot data for time step 8"
variables ="x","y","z","f","d"
ZONE N =24,E =3,datapacking=block
varlocation=([4,6]=cellcentered)
zonetype=febrick
0.00000	-0.00421	0.00000	0.00421	0.00805	0.00384	0.00805	0.01226	-1.00000	-1.00043	-1.00000	-0.99957	0.00805	0.00762	0.00805	0.00848	1.00000	1.00043	1.00000	0.99957	0.00805	0.00848	0.00805	0.00761	
0.00421	0.00000	-0.00421	0.00000	0.00421	0.00000	-0.00421	0.00000	0.00061	0.00000	-0.00061	0.00000	0.00061	0.00000	-0.00061	0.00000	0.00061	0.00000	-0.00061	0.00000	0.00061	0.00000	-0.00061	0.00000	
0.00000	0.00003	0.00000	-0.00003	0.99991	0.99994	0.99991	0.99988	0.00000	0.00043	0.00000	-0.00043	0.99991	1.00035	0.99991	0.99948	0.00000	0.00043	0.00000	-0.00043	0.99991	1.00034	0.99991	0.99948	
     -707.03014	     1003.93700	        0.00000	
0.00000	0.00000	0.00000	0.00000	0.00805	0.00805	0.00805	0.00805	0.00000	0.00000	0.00000	0.00000	0.00805	0.00805	0.00805	0.00805	0.00000	0.00000	0.00000	0.00000	0.00805	0.00805	0.00805	0.00805	
1 2 3 4
5 6 7 8
9 10 11 12
13 14 15 16
17 18 19 20
21 22 23 24
Title="tecplot data for time step 9"
variables ="x","y","z","f","d"
ZONE N =24,E =3,datapacking=block
varlocation=([4,6]=cellcentered)
zonetype=febrick
0.00000	-0.00421	0.00000	0.00421	0.00925	0.00504	0.00925	0.01346	-1.00000	-1.00043	-1.00000	-0.99957	0.00925	0.00882	0.00925	0.00968	1.00000	1.00044	1.00000	0.99956	0.00925	0.00969	0.00925	0.00882	
0.00421	0.00000	-0.00421	0.00000	0.00421	0.00000	-0.00421	0.00000	0.00061	0.00000	-0.00061	0.00000	0.00061	0.00000	-0.00061	0.00000	0.00061	0.00000	-0.00061	0.00000	0.00061	0.00000	-0.00061	0.00000	
0.00000	0.00004	0.00000	-0.00004	0.99989	0.99993	0.99989	0.99985	0.00000	0.00044	0.00000	-0.00044	0.99989	1.00033	0.99989	0.99946	0.00000	0.00043	0.00000	-0.00043	0.99989	1.00032	0.99989	0.99946	
     -808.02732	     1148.03464	        0.00000	
0.00000	0.00000	0.00000	0.00000	0.00925	0.00925	0.00925	0.00925	0.00000	0.00000	0.00000	0.00000	0.00925	0.00925	0.00925	0.00925	0.00000	0.00000	0.00000	0.00000	0.00925	0.00925	0.00925	0.00925	
1 2 3 4
5 6 7 8
9 10 11 12
13 14 15 16
17 18 19 20
21 22 23 24
Title="tecplot data for time step 10"
variables ="x","y","z","f","d"
ZONE N =24,E =3,datapacking=block
varlocation=([4,6]=cellcentered)
zonetype=febrick
0.00000	-0.00421	0.00000	0.00421	0.01045	0.00625	0.01045	0.01466	-1.00000	-1.00043	-1.00000	-0.99957	0.01045	0.01002	0.01045	0.01088	1.00000	1.00044	1.00000	0.99956	0.01045	0.01089	0.01045	0.01002	
0.00421	0.00000	-0.00421	0.00000	0.00421	0.00000	-0.00421	0.00000	0.00061	0.00000	-0.00061	0.00000	0.00061	0.00000	-0.00061	0.00000	0.00061	0.00000	-0.00061	0.00000	0.00061	0.00000	-0.00061	0.00000	
0.00000	0.00004	0.00000	-0.00004	0.99987	0.99991	0.99987	0.99983	0.00000	0.00044	0.00000	-0.00044	0.99987	1.00031	0.99987	0.99943	0.00000	0.00043	0.00000	-0.00043	0.99987	1.00030	0.99987	0.99944	
     -909.02272	     1292.30269	        0.00000	
0.00000	0.00000	0.00000	0.00000	0.01045	0.01045	0.01045	0.01045	0.00000	0.00000	0.00000	0.00000	0.01045	0.01045	0.01045	0.01045	0.00000	0.00000	0.00000	0.00000	0.01045	0.01045	0.01045	0.01045	
1 2 3 4
5 6 7 8
9 10 11 12
13 14 15 16
17 18 19 20
21 22 23 24
Title="tecplot data for time step 11"
variables ="x","y","z","f","d"
ZONE N =24,E =3,datapacking=block
varlocation=([4,6]=cellcentered)
zonetype=febrick
0.00000	-0.00421	0.00000	0.00421	0.01166	0.00745	0.01166	0.01586	-1.00000	-1.00043	-1.00000	-0.99957	0.01166	0.01123	0.01166	0.01209	1.00000	1.00044	1.00000	0.99956	0.01166	0.01209	0.01166	0.01122	
0.00421	0.00000	-0.00421	0.00000	0.00421	0.00000	-0.00421	0.00000	0.00061	0.00000	-0.00061	0.00000	0.00061	0.00000	-0.00061	0.00000	0.00061	0.00000	-0.00061	0.00000	0.00061	0.00000	-0.00061	0.00000	
0.00000	0.00005	0.00000	-0.00005	0.99985	0.99990	0.99985	0.99980	0.00000	0.00044	0.00000	-0.00044	0.99985	1.00028	0.99985	0.99941	0.00000	0.00043	0.00000	-0.00043	0.99985	1.00028	0.99985	0.99942	
    -1010.01634	     1436.74146	        0.00000	
0.00000	0.00000	0.00000	0.00000	0.01166	0.01166	0.01166	0.01166	0.00000	0.00000	0.00000	0.00000	0.01166	0.01166	0.01166	0.01166	0.00000	0.00000	0.00000	0.00000	0.01166	0.01166	0.01166	0.01166	
1 2 3 4
5 6 7 8
9 10 11 12
13 14 15 16
17 18 19 20
21 22 23 24
Title="tecplot data for time step 12"
variables ="x","y","z","f","d"
ZONE N =24,E =3,datapacking=block
varlocation=([4,6]=cellcentered)
zonetype=febrick
0.00000	-0.00421	0.00000	0.00421	0.01286	0.00866	0.01286	0.01707	-1.00000	-1.00043	-1.00000	-0.99957	0.01286	0.01243	0.01286	0.01329	1.00000	1.00044	1.00000	0.99956	0.01286	0.01330	0.01286	0.01243	
0.00421	0.00000	-0.00421	0.00000	0.00421	0.00000	-0.00421	0.00000	0.00061	0.00000	-0.00061	0.00000	0.00061	0.00000	-0.00061	0.00000	0.00061	0.00000	-0.00061	0.00000	0.00061	0.00000	-0.00061	0.00000	
0.00000	0.00005	0.00000	-0.00005	0.99982	0.99988	0.99982	0.99977	0.00000	0.00044	0.00000	-0.00044	0.99982	1.00026	0.99982	0.99939	0.00000	0.00043	0.00000	-0.00043	0.99982	1.00025	0.99982	0.99939	
    -1111.00817	     1581.35126	        0.00000	
0.00000	0.00000	0.00000	0.00000	0.01287	0.01287	0.01287	0.01287	0.00000	0.00000	0.00000	0.00000	0.01287	0.01287	0.01287	0.01287	0.00000	0.00000	0.00000	0.00000	0.01287	0.01287	0.01287	0.01287	
1 2 3 4
5 6 7 8
9 10 11 12
13 14 15 16
17 18 19 20
21 22 23 24
Title="tecplot data for time step 13"
variables ="x","y","z","f","d"
ZONE N =24,E =3,datapacking=block
varlocation=([4,6]=cellcentered)
zonetype=febrick
0.00000	-0.00421	0.00000	0.00421	0.01407	0.00987	0.01407	0.01828	-1.00000	-1.00043	-1.00000	-0.99957	0.01407	0.01364	0.01407	0.01450	1.00000	1.00044	1.00000	0.99956	0.01407	0.01451	0.01407	0.01364	
0.00421	0.00000	-0.00421	0.00000	0.00421	0.00000	-0.00421	0.00000	0.00061	0.00000	-0.00061	0.00000	0.00061	0.00000	-0.00061	0.00000	0.00061	0.00000	-0.00061	0.00000	0.00061	0.00000	-0.00061	0.00000	
0.00000	0.00006	0.00000	-0.00006	0.99980	0.99986	0.99980	0.99974	0.00000	0.00044	0.00000	-0.00044	0.99980	1.00024	0.99980	0.99936	0.00000	0.00043	0.00000	-0.00043	0.99980	1.00023	0.99980	0.99937	
    -1211.99822	     1726.13238	        0.00000	
0.00000	0.00000	0.00000	0.00000	0.01408	0.01408	0.01408	0.01408	0.00000	0.00000	0.00000	0.00000	0.01408	0.01408	0.01408	0.01408	0.00000	0.00000	0.00000	0.00000	0.01408	0.01408	0.01408	0.01408	
1 2 3 4
5 6 7 8
9 10 11 12
13 14 15 16
17 18 19 20
21 22 23 24
Title="tecplot data for time step 14"
variables ="x","y","z","f","d"
ZONE N =24,E =3,datapacking=block
varlocation=([4,6]=cellcentered)
zonetype=febrick
0.00000	-0.00421	0.00000	0.00421	0.01528	0.01108	0.01528	0.01949	-1.00000	-1.00043	-1.00000	-0.99957	0.01528	0.01486	0.01528	0.01571	1.00000	1.00044	1.00000	0.99956	0.01528	0.01572	0.01528	0.01485	
0.00421	0.00000	-0.00421	0.00000	0.00421	0.00000	-0.00421	0.00000	0.00061	0.00000	-0.00061	0.00000	0.00061	0.00000	-0.00061	0.00000	0.00061	0.00000	-0.00061	0.00000	0.00061	0.00000	-0.00061	0.00000	
0.00000	0.00006	0.00000	-0.00006	0.99977	0.99984	0.99977	0.99971	0.00000	0.00044	0.00000	-0.00044	0.99977	1.00021	0.99977	0.99934	0.00000	0.00043	0.00000	-0.00043	0.99977	1.00020	0.99977	0.99934	
    -1312.98650	     1871.08514	        0.00000	
0.00000	0.00000	0.00000	0.00000	0.01529	0.01529	0.01529	0.01529	0.00000	0.00000	0.00000	0.00000	0.01529	0.01529	0.01529	0.01529	0.00000	0.00000	0.00000	0.00000	0.01529	0.01529	0.01529	0.01529	
1 2 3 4
5 6 7 8
9 10 11 12
13 14 15 16
17 18 19 20
21 22 23 24
Title="tecplot data for time step 15"
variables ="x","y","z","f","d"
ZONE N =24,E =3,datapacking=block
varlocation=([4,6]=cellcentered)
zonetype=febrick
0.00000	-0.00421	0.00000	0.00421	0.01650	0.01229	0.01650	0.02070	-1.00000	-1.00043	-1.00000	-0.99957	0.01650	0.01607	0.01650	0.01693	1.00000	1.00044	1.00000	0.99956	0.01650	0.01693	0.01650	0.01606	
0.00421	0.00000	-0.00421	0.00000	0.00421	0.00000	-0.00421	0.00000	0.00061	0.00000	-0.00061	0.00000	0.00061	0.00000	-0.00061	0.00000	0.00061	0.00000	-0.00061	0.00000	0.00061	0.00000	-0.00061	0.00000	
0.00000	0.00007	0.00000	-0.00007	0.99974	0.99981	0.99974	0.99968	0.00000	0.00044	0.00000	-0.00044	0.99974	1.00018	0.99974	0.99931	0.00000	0.00043	0.00000	-0.00043	0.99974	1.00017	0.99974	0.99932	
    -1413.97299	     2016.20983	        0.00000	
0.00000	0.00000	0.00000	0.00000	0.01650	0.01650	0.01650	0.01650	0.00000	0.00000	0.00000	0.00000	0.01650	0.01650	0.01650	0.01650	0.00000	0.00000	0.00000	0.00000	0.01650	0.01650	0.01650	0.01650	
1 2 3 4
5 6 7 8
9 10 11 12
13 14 15 16
17 18 19 20
21 22 23 24
Title="tecplot data for time step 16"
variables ="x","y","z","f","d"
ZONE N =24,E =3,datapacking=block
varlocation=([4,6]=cellcentered)
zonetype=febrick
0.00000	-0.00421	0.00000	0.00421	0.01771	0.01351	0.01771	0.02192	-1.00000	-1.00043	-1.00000	-0.99957	0.01771	0.01728	0.01771	0.01814	1.00000	1.00044	1.00000	0.99956	0.01771	0.01815	0.01771	0.01728	
0.00421	0.00000	-0.00421	0.00000	0.00421	0.00000	-0.00421	0.00000	0.00061	0.00000	-0.00061	0.00000	0.00061	0.00000	-0.00061	0.00000	0.00061	0.00000	-0.00061	0.00000	0.00061	0.00000	-0.00061	0.00000	
0.00000	0.00007	0.00000	-0.00007	0.99972	0.99979	0.99972	0.99964	0.00000	0.00044	0.00000	-0.00044	0.99972	1.00015	0.99972	0.99928	0.00000	0.00043	0.00000	-0.00043	0.99972	1.00014	0.99972	0.99929	
    -1514.95770	     2161.50677	        0.00000	
0.00000	0.00000	0.00000	0.00000	0.01772	0.01772	0.01772	0.01772	0.00000	0.00000	0.00000	0.00000	0.01772	0.01772	0.01772	0.01772	0.00000	0.00000	0.00000	0.00000	0.01772	0.01772	0.01772	0.01772	
1 2 3 4
5 6 7 8
9 10 11 12
13 14 15 16
17 18 19 20
21 22 23 24
Title="tecplot data for time step 17"
variables ="x","y","z","f","d"
ZONE N =24,E =3,datapacking=block
varlocation=([4,6]=cellcentered)
zonetype=febrick
0.00000	-0.00421	0.00000	0.00421	0.01893	0.01473	0.01893	0.02314	-1.00000	-1.00043	-1.00000	-0.99957	0.01893	0.01850	0.01893	0.01936	1.00000	1.00044	1.00000	0.99956	0.01893	0.01937	0.01893	0.01849	
0.00421	0.00000	-0.00421	0.00000	0.00421	0.00000	-0.00421	0.00000	0.00061	0.00000	-0.00061	0.00000	0.00061	0.00000	-0.00061	0.00000	0.00061	0.00000	-0.00061	0.00000	0.00061	0.00000	-0.00061	0.00000	
0.00000	0.00008	0.00000	-0.00008	0.99968	0.99976	0.99968	0.99960	0.00000	0.00044	0.00000	-0.00044	0.99968	1.00012	0.99968	0.99925	0.00000	0.00043	0.00000	-0.00043	0.99968	1.00011	0.99968	0.99926	
    -1615.94063	     2306.97625	        0.00000	
0.00000	0.00000	0.00000	0.00000	0.01893	0.01893	0.01893	0.01893	0.00000	0.00000	0.00000	0.00000	0.01893	0.01893	0.01893	0.01893	0.00000	0.00000	0.00000	0.00000	0.01893	0.01893	0.01893	0.01893	
1 2 3 4
5 6 7 8
9 10 11 12
13 14 15 16
17 18 19 20
21 22 23 24
Title="tecplot data for time step 18"
variables ="x","y","z","f","d"
ZONE N =24,E =3,datapacking=block
varlocation=([4,6]=cellcentered)
zonetype=febrick
0.00000	-0.00421	0.00000	0.00421	0.02015	0.01595	0.02015	0.02436	-1.00000	-1.00043	-1.00000	-0.99957	0.02015	0.01972	0.02015	0.02058	1.00000	1.00044	1.00000	0.99956	0.02015	0.02059	0.02015	0.01971	
0.00421	0.00000	-0.00421	0.00000	0.00421	0.00000	-0.00421	0.00000	0.00061	0.00000	-0.00061	0.00000	0.00061	0.00000	-0.00061	0.00000	0.00061	0.00000	-0.00061	0.00000	0.00061	0.00000	-0.00061	0.00000	
0.00000	0.00008	0.00000	-0.00008	0.99965	0.99974	0.99965	0.99957	0.00000	0.00044	0.00000	-0.00044	0.99965	1.00009	0.99965	0.99921	0.00000	0.00043	0.00000	-0.00043	0.99965	1.00008	0.99965	0.99922	
    -1716.92178	     2452.61860	        0.00000	
0.00000	0.00000	0.00000	0.00000	0.02015	0.02015	0.02015	0.02015	0.00000	0.00000	0.00000	0.00000	0.02015	0.02015	0.02015	0.02015	0.00000	0.00000	0.00000	0.00000	0.02015	0.02015	0.02015	0.02015	
1 2 3 4
5 6 7 8
9 10 11 12
13 14 15 16
17 18 19 20
21 22 23 24
Title="tecplot data for time step 19"
variables ="x","y","z","f","d"
ZONE N =24,E =3,datapacking=block
varlocation=([4,6]=cellcentered)
zonetype=febrick
0.00000	-0.00421	0.00000	0.00421	0.02137	0.01717	0.02137	0.02558	-1.00000	-1.00043	-1.00000	-0.99957	0.02137	0.02094	0.02137	0.02180	1.00000	1.00044	1.00000	0.99956	0.02137	0.02181	0.02137	0.02094	
0.00421	0.00000	-0.00421	0.00000	0.00421	0.00000	-0.00421	0.00000	0.00061	0.00000	-0.00061	0.00000	0.00061	0.00000	-0.00061	0.00000	0.00061	0.00000	-0.00061	0.00000	0.00061	0.00000	-0.00061	0.00000	
0.00000	0.00009	0.00000	-0.00009	0.99962	0.99971	0.99962	0.99953	0.00000	0.00044	0.00000	-0.00044	0.99962	1.00005	0.99962	0.99918	0.00000	0.00043	0.00000	-0.00043	0.99962	1.00005	0.99962	0.99919	
    -1817.90116	     2598.43411	        0.00000	
0.00000	0.00000	0.00000	0.00000	0.02138	0.02138	0.02138	0.02138	0.00000	0.00000	0.00000	0.00000	0.02138	0.02138	0.02138	0.02138	0.00000	0.00000	0.00000	0.00000	0.02138	0.02138	0.02138	0.02138	
1 2 3 4
5 6 7 8
9 10 11 12
13 14 15 16
17 18 19 20
21 22 23 24
Title="tecplot data for time step 20"
variables ="x","y","z","f","d"
ZONE N =24,E =3,datapacking=block
varlocation=([4,6]=cellcentered)
zonetype=febrick
0.00000	-0.00421	0.00000	0.00421	0.02260	0.01839	0.02260	0.02680	-1.00000	-1.00043	-1.00000	-0.99957	0.02260	0.02217	0.02260	0.02303	1.00000	1.00044	1.00000	0.99956	0.02260	0.02304	0.02260	0.02216	
0.00421	0.00000	-0.00421	0.00000	0.00421	0.00000	-0.00421	0.00000	0.00061	0.00000	-0.00061	0.00000	0.00061	0.00000	-0.00061	0.00000	0.00061	0.00000	-0.00061	0.00000	0.00061	0.00000	-0.00061	0.00000	
0.00000	0.00010	0.00000	-0.00010	0.99958	0.99968	0.99958	0.99949	0.00000	0.00044	0.00000	-0.00044	0.99958	1.00002	0.99958	0.99914	0.00000	0.00043	0.00000	-0.00043	0.99958	1.00001	0.99958	0.99915	
    -1918.87874	     2744.42310	        0.00000	
0.00000	0.00000	0.00000	0.00000	0.02260	0.02260	0.02260	0.02260	0.00000	0.00000	0.00000	0.00000	0.02260	0.02260	0.02260	0.02260	0.00000	0.00000	0.00000	0.00000	0.02260	0.02260	0.02260	0.02260	
1 2 3 4
5 6 7 8
9 10 11 12
13 14 15 16
17 18 19 20
21 22 23 24
Title="tecplot data for time step 21"
variables ="x","y","z","f","d"
ZONE N =24,E =3,datapacking=block
varlocation=([4,6]=cellcentered)
zonetype=febrick
0.00000	-0.00421	0.00000	0.00421	0.02382	0.01962	0.02382	0.02803	-1.00000	-1.00043	-1.00000	-0.99957	0.02382	0.02340	0.02382	0.02425	1.00000	1.00044	1.00000	0.99956	0.02382	0.02426	0.02382	0.02339	
0.00421	0.00000	-0.00421	0.00000	0.00421	0.00000	-0.00421	0.00000	0.00061	0.00000	-0.00061	0.00000	0.00061	0.00000	-0.00061	0.00000	0.00061	0.00000	-0.00061	0.00000	0.00061	0.00000	-0.00061	0.00000	
0.00000	0.00010	0.00000	-0.00010	0.99954	0.99964	0.99954	0.99944	0.00000	0.00044	0.00000	-0.00044	0.99954	0.99998	0.99954	0.99911	0.00000	0.00043	0.00000	-0.00043	0.99954	0.99997	0.99954	0.99912	
    -2019.85455	     2890.58587	        0.00000	
0.00000	0.00000	0.00000	0.00000	0.02383	0.02383	0.02383	0.02383	0.00000	0.00000	0.00000	0.00000	0.02383	0.02383	0.02383	0.02383	0.00000	0.00000	0.00000	0.00000	0.02383	0.02383	0.02383	0.02383	
1 2 3 4
5 6 7 8
9 10 11 12
13 14 15 16
17 18 19 20
21 22 23 24
Title="tecplot data for time step 22"
variables ="x","y","z","f","d"
ZONE N =24,E =3,datapacking=block
varlocation=([4,6]=cellcentered)
zonetype=febrick
0.00000	-0.00421	0.00000	0.00421	0.02505	0.02085	0.02505	0.02926	-1.00000	-1.00043	-1.00000	-0.99957	0.02505	0.02462	0.02505	0.02548	1.00000	1.00044	1.00000	0.99956	0.02505	0.02549	0.02505	0.02461	
0.00421	0.00000	-0.00421	0.00000	0.00421	0.00000	-0.00421	0.00000	0.00061	0.00000	-0.00061	0.00000	0.00061	0.00000	-0.00061	0.00000	0.00061	0.00000	-0.00061	0.00000	0.00061	0.00000	-0.00061	0.00000	
0.00000	0.00011	0.00000	-0.00011	0.99951	0.99961	0.99951	0.99940	0.00000	0.00044	0.00000	-0.00044	0.99951	0.99994	0.99951	0.99907	0.00000	0.00043	0.00000	-0.00043	0.99951	0.99993	0.99951	0.99908	
    -2120.82858	     3036.92273	        0.00000	
0.00000	0.00000	0.00000	0.00000	0.02506	0.02506	0.02506	0.02506	0.00000	0.00000	0.00000	0.00000	0.02506	0.02506	0.02506	0.02506	0.00000	0.00000	0.00000	0.00000	0.02506	0.02506	0.02506	0.02506	
1 2 3 4
5 6 7 8
9 10 11 12
13 14 15 16
17 18 19 20
21 22 23 24
Title="tecplot data for time step 23"
variables ="x","y","z","f","d"
ZONE N =24,E =3,datapacking=block
varlocation=([4,6]=cellcentered)
zonetype=febrick
0.00000	-0.00420	0.00000	0.00420	0.02628	0.02208	0.02628	0.03049	-1.00000	-1.00043	-1.00000	-0.99957	0.02628	0.02586	0.02628	0.02671	1.00000	1.00044	1.00000	0.99956	0.02628	0.02672	0.02628	0.02584	
0.00421	0.00000	-0.00421	0.00000	0.00421	0.00000	-0.00421	0.00000	0.00061	0.00000	-0.00061	0.00000	0.00061	0.00000	-0.00061	0.00000	0.00061	0.00000	-0.00061	0.00000	0.00061	0.00000	-0.00061	0.00000	
0.00000	0.00011	0.00000	-0.00011	0.99946	0.99958	0.99946	0.99935	0.00000	0.00044	0.00000	-0.00044	0.99946	0.99990	0.99946	0.99903	0.00000	0.00043	0.00000	-0.00043	0.99946	0.99989	0.99946	0.99904	
    -2221.80082	     3183.43401	        0.00000	
0.00000	0.00000	0.00000	0.00000	0.02629	0.02629	0.02629	0.02629	0.00000	0.00000	0.00000	0.00000	0.02629	0.02629	0.02629	0.02629	0.00000	0.00000	0.00000	0.00000	0.02629	0.02629	0.02629	0.02629	
1 2 3 4
5 6 7 8
9 10 11 12
13 14 15 16
17 18 19 20
21 22 23 24
Title="tecplot data for time step 24"
variables ="x","y","z","f","d"
ZONE N =24,E =3,datapacking=block
varlocation=([4,6]=cellcentered)
zonetype=febrick
0.00000	-0.00420	0.00000	0.00420	0.02752	0.02331	0.02752	0.03172	-1.00000	-1.00043	-1.00000	-0.99957	0.02752	0.02709	0.02752	0.02794	1.00000	1.00044	1.00000	0.99956	0.02752	0.02795	0.02752	0.02708	
0.00421	0.00000	-0.00421	0.00000	0.00421	0.00000	-0.00421	0.00000	0.00061	0.00000	-0.00061	0.00000	0.00061	0.00000	-0.00061	0.00000	0.00061	0.00000	-0.00061	0.00000	0.00061	0.00000	-0.00061	0.00000	
0.00000	0.00012	0.00000	-0.00012	0.99942	0.99954	0.99942	0.99931	0.00000	0.00044	0.00000	-0.00044	0.99942	0.99986	0.99942	0.99898	0.00000	0.00043	0.00000	-0.00043	0.99942	0.99985	0.99942	0.99900	
    -2322.77128	     3330.12000	        0.00000	
0.00000	0.00000	0.00000	0.00000	0.02752	0.02752	0.02752	0.02752	0.00000	0.00000	0.00000	0.00000	0.02752	0.02752	0.02752	0.02752	0.00000	0.00000	0.00000	0.00000	0.02752	0.02752	0.02752	0.02752	
1 2 3 4
5 6 7 8
9 10 11 12
13 14 15 16
17 18 19 20
21 22 23 24
Title="tecplot data for time step 25"
variables ="x","y","z","f","d"
ZONE N =24,E =3,datapacking=block
varlocation=([4,6]=cellcentered)
zonetype=febrick
0.00000	-0.00420	0.00000	0.00420	0.02875	0.02455	0.02875	0.03296	-1.00000	-1.00043	-1.00000	-0.99957	0.02875	0.02832	0.02875	0.02918	1.00000	1.00044	1.00000	0.99956	0.02875	0.02919	0.02875	0.02831	
0.00421	0.00000	-0.00421	0.00000	0.00421	0.00000	-0.00421	0.00000	0.00061	0.00000	-0.00061	0.00000	0.00061	0.00000	-0.00061	0.00000	0.00061	0.00000	-0.00061	0.00000	0.00061	0.00000	-0.00061	0.00000	
0.00000	0.00012	0.00000	-0.00012	0.99938	0.99950	0.99938	0.99926	0.00000	0.00044	0.00000	-0.00044	0.99938	0.99982	0.99938	0.99894	0.00000	0.00043	0.00000	-0.00043	0.99938	0.99981	0.99938	0.99895	
    -2423.73997	     3476.98102	        0.00000	
0.00000	0.00000	0.00000	0.00000	0.02876	0.02876	0.02876	0.02876	0.00000	0.00000	0.00000	0.00000	0.02876	0.02876	0.02876	0.02876	0.00000	0.00000	0.00000	0.00000	0.02876	0.02876	0.02876	0.02876	
1 2 3 4
5 6 7 8
9 10 11 12
13 14 15 16
17 18 19 20
21 22 23 24
Title="tecplot data for time step 26"
variables ="x","y","z","f","d"
ZONE N =24,E =3,datapacking=block
varlocation=([4,6]=cellcentered)
zonetype=febrick
0.00000	-0.00420	0.00000	0.00420	0.02999	0.02578	0.02999	0.03419	-1.00000	-1.00043	-1.00000	-0.99957	0.02999	0.02956	0.02999	0.03041	1.00000	1.00044	1.00000	0.99956	0.02999	0.03043	0.02999	0.02955	
0.00421	0.00000	-0.00421	0.00000	0.00421	0.00000	-0.00421	0.00000	0.00061	0.00000	-0.00061	0.00000	0.00061	0.00000	-0.00061	0.00000	0.00061	0.00000	-0.00061	0.00000	0.00061	0.00000	-0.00061	0.00000	
0.00000	0.00013	0.00000	-0.00013	0.99933	0.99946	0.99933	0.99921	0.00000	0.00044	0.00000	-0.00044	0.99933	0.99977	0.99933	0.99889	0.00000	0.00043	0.00000	-0.00043	0.99933	0.99976	0.99933	0.99891	
    -2524.70687	     3624.01739	        0.00000	
0.00000	0.00000	0.00000	0.00000	0.03000	0.03000	0.03000	0.03000	0.00000	0.00000	0.00000	0.00000	0.03000	0.03000	0.03000	0.03000	0.00000	0.00000	0.00000	0.00000	0.03000	0.03000	0.03000	0.03000	
1 2 3 4
5 6 7 8
9 10 11 12
13 14 15 16
17 18 19 20
21 22 23 24
Title="tecplot data for time step 27"
variables ="x","y","z","f","d"
ZONE N =24,E =3,datapacking=block
varlocation=([4,6]=cellcentered)
zonetype=febrick
0.00000	-0.00420	0.00000	0.00420	0.03123	0.02702	0.03123	0.03543	-1.00000	-1.00043	-1.00000	-0.99957	0.03123	0.03080	0.03123	0.03165	1.00000	1.00044	1.00000	0.99956	0.03123	0.03167	0.03123	0.03079	
0.00421	0.00000	-0.00421	0.00000	0.00421	0.00000	-0.00421	0.00000	0.00061	0.00000	-0.00061	0.00000	0.00061	0.00000	-0.00061	0.00000	0.00061	0.00000	-0.00061	0.00000	0.00061	0.00000	-0.00061	0.00000	
0.00000	0.00013	0.00000	-0.00013	0.99929	0.99942	0.99929	0.99916	0.00000	0.00044	0.00000	-0.00044	0.99929	0.99973	0.99929	0.99885	0.00000	0.00043	0.00000	-0.00043	0.99929	0.99971	0.99929	0.99886	
    -2625.67200	     3771.22942	        0.00000	
0.00000	0.00000	0.00000	0.00000	0.03124	0.03124	0.03124	0.03124	0.00000	0.00000	0.00000	0.00000	0.03124	0.03124	0.03124	0.03124	0.00000	0.00000	0.00000	0.00000	0.03124	0.03124	0.03124	0.03124	
1 2 3 4
5 6 7 8
9 10 11 12
13 14 15 16
17 18 19 20
21 22 23 24
Title="tecplot data for time step 28"
variables ="x","y","z","f","d"
ZONE N =24,E =3,datapacking=block
varlocation=([4,6]=cellcentered)
zonetype=febrick
0.00000	-0.00420	0.00000	0.00420	0.03247	0.02826	0.03247	0.03667	-1.00000	-1.00043	-1.00000	-0.99957	0.03247	0.03204	0.03247	0.03289	1.00000	1.00044	1.00000	0.99956	0.03247	0.03291	0.03247	0.03203	
0.00421	0.00000	-0.00421	0.00000	0.00421	0.00000	-0.00421	0.00000	0.00061	0.00000	-0.00061	0.00000	0.00061	0.00000	-0.00061	0.00000	0.00061	0.00000	-0.00061	0.00000	0.00061	0.00000	-0.00061	0.00000	
0.00000	0.00014	0.00000	-0.00014	0.99924	0.99938	0.99924	0.99910	0.00000	0.00044	0.00000	-0.00044	0.99924	0.99968	0.99924	0.99880	0.00000	0.00043	0.00000	-0.00043	0.99924	0.99966	0.99924	0.99881	
    -2726.63534	     3918.61742	        0.00000	
0.00000	0.00000	0.00000	0.00000	0.03248	0.03248	0.03248	0.03248	0.00000	0.00000	0.00000	0.00000	0.03248	0.03248	0.03248	0.03248	0.00000	0.00000	0.00000	0.00000	0.03248	0.03248	0.03248	0.03248	
1 2 3 4
5 6 7 8
9 10 11 12
13 14 15 16
17 18 19 20
21 22 23 24
Title="tecplot data for time step 29"
variables ="x","y","z","f","d"
ZONE N =24,E =3,datapacking=block
varlocation=([4,6]=cellcentered)
zonetype=febrick
0.00000	-0.00420	0.00000	0.00420	0.03371	0.02951	0.03371	0.03792	-1.00000	-1.00043	-1.00000	-0.99957	0.03371	0.03329	0.03371	0.03414	1.00000	1.00044	1.00000	0.99956	0.03371	0.03415	0.03371	0.03327	
0.00421	0.00000	-0.00421	0.00000	0.00421	0.00000	-0.00421	0.00000	0.00061	0.00000	-0.00061	0.00000	0.00061	0.00000	-0.00061	0.00000	0.00061	0.00000	-0.00061	0.00000	0.00061	0.00000	-0.00061	0.00000	