Title="tecplot data for time step 1"
variables ="x","y","z","f","d"
ZONE N =48,E =6,datapacking=block
varlocation=([4,6]=cellcentered)
zonetype=febrick
0.00000	0.00000	0.00000	0.00000	2.00000	2.00000	2.00000	2.00000	0.20000	1.00000	1.80000	1.00000	0.20000	1.00000	1.80000	1.00000	-0.14142	0.00000	0.14142	0.00000	0.85858	1.00000	1.14142	1.00000	1.14142	1.00000	0.85858	1.00000	2.14142	2.00000	1.85858	2.00000	1.85858	2.00000	2.14142	2.00000	0.85858	1.00000	1.14142	1.00000	0.14142	0.00000	-0.14142	0.00000	1.14142	1.00000	0.85858	1.00000	
0.80000	0.00000	-0.80000	0.00000	0.80000	0.00000	-0.80000	0.00000	1.00000	1.00000	1.00000	1.00000	-1.00000	-1.00000	-1.00000	-1.00000	0.14142	0.00000	-0.14142	0.00000	1.14142	1.00000	0.85858	1.00000	1.14142	1.00000	0.85858	1.00000	0.14142	0.00000	-0.14142	0.00000	0.14142	0.00000	-0.14142	0.00000	-0.85858	-1.00000	-1.14142	-1.00000	0.14142	0.00000	-0.14142	0.00000	-0.85858	-1.00000	-1.14142	-1.00000	
0.00000	0.80000	0.00000	-0.80000	0.00000	0.80000	0.00000	-0.80000	0.00000	0.80000	0.00000	-0.80000	0.00000	0.80000	0.00000	-0.80000	0.00000	0.20000	0.00000	-0.20000	0.00000	0.20000	0.00000	-0.20000	0.00000	0.20000	0.00000	-0.20000	0.00000	0.20000	0.00000	-0.20000	0.00000	0.20000	0.00000	-0.20000	0.00000	0.20000	0.00000	-0.20000	0.00000	0.20000	0.00000	-0.20000	0.00000	0.20000	0.00000	-0.20000	
     -100.00000	     -100.00000	        0.00000	        0.00000	      -11.71594	        0.00000	
0.00000	0.00000	0.00000	0.00000	0.00000	0.00000	0.00000	0.00000	0.00000	0.00000	0.00000	0.00000	0.00000	0.00000	0.00000	0.00000	0.00000	0.00000	0.00000	0.00000	0.00000	0.00000	0.00000	0.00000	0.00000	0.00000	0.00000	0.00000	0.00000	0.00000	0.00000	0.00000	0.00000	0.00000	0.00000	0.00000	0.00000	0.00000	0.00000	0.00000	0.00000	0.00000	0.00000	0.00000	0.00000	0.00000	0.00000	0.00000	
1 2 3 4
5 6 7 8
9 10 11 12
13 14 15 16
17 18 19 20
21 22 23 24
25 26 27 28
29 30 31 32
33 34 35 36
37 38 39 40
41 42 43 44
45 46 47 48
Title="tecplot data for time step 2"
variables ="x","y","z","f","d"
ZONE N =48,E =6,datapacking=block
varlocation=([4,6]=cellcentered)
zonetype=febrick
-0.00074	0.00000	0.00074	0.00000	1.99926	2.00001	2.00075	2.00001	0.20041	1.00041	1.80041	1.00041	0.19807	0.99807	1.79807	0.99807	-0.14134	0.00000	0.14134	0.00000	0.85908	1.00041	1.14175	1.00041	1.14168	1.00041	0.85915	1.00041	2.14127	2.00001	1.85874	2.00001	1.85854	2.00001	2.14148	2.00001	0.85660	0.99807	1.13954	0.99807	0.14161	0.00000	-0.14161	0.00000	1.13968	0.99807	0.85646	0.99807	
0.80000	0.00000	-0.80000	0.00000	0.80185	0.00185	-0.79814	0.00185	1.00018	0.99925	0.99831	0.99925	-0.99982	-1.00076	-1.00170	-1.00076	0.14150	0.00000	-0.14150	0.00000	1.14075	0.99925	0.85774	0.99925	1.14082	0.99925	0.85767	0.99925	0.14343	0.00185	-0.13972	0.00185	0.14323	0.00185	-0.13952	0.00185	-0.85939	-1.00076	-1.14213	-1.00076	0.14123	0.00000	-0.14123	0.00000	-0.85953	-1.00076	-1.14199	-1.00076	
0.00000	0.80000	0.00000	-0.80000	0.00000	0.80000	0.00000	-0.80000	0.00000	0.80000	0.00000	-0.80000	0.00000	0.80000	0.00000	-0.80000	0.00000	0.20000	0.00000	-0.20000	0.00000	0.20000	0.00000	-0.20000	0.00000	0.20000	0.00000	-0.20000	0.00000	0.20000	0.00000	-0.20000	0.00000	0.20000	0.00000	-0.20000	0.00000	0.20000	0.00000	-0.20000	0.00000	0.20000	0.00000	-0.20000	0.00000	0.20000	0.00000	-0.20000	
       22.94952	       14.30810	        0.00000	        0.00000	      -40.40517	        0.00000	
0.00000	0.00000	0.00000	0.00000	0.00185	0.00185	0.00185	0.00185	0.00086	0.00086	0.00086	0.00086	0.00207	0.00207	0.00207	0.00207	0.00000	0.00000	0.00000	0.00000	0.00086	0.00086	0.00086	0.00086	0.00086	0.00086	0.00086	0.00086	0.00185	0.00185	0.00185	0.00185	0.00185	0.00185	0.00185	0.00185	0.00207	0.00207	0.00207	0.00207	0.00000	0.00000	0.00000	0.00000	0.00207	0.00207	0.00207	0.00207	
1 2 3 4
5 6 7 8
9 10 11 12
13 14 15 16
17 18 19 20
21 22 23 24
25 26 27 28
29 30 31 32
33 34 35 36
37 38 39 40
41 42 43 44
45 46 47 48
Title="tecplot data for time step 3"
variables ="x","y","z","f","d"
ZONE N =48,E =6,datapacking=block
varlocation=([4,6]=cellcentered)
zonetype=febrick
-0.00268	0.00000	0.00268	0.00000	1.99731	2.00000	2.00268	2.00000	0.20086	1.00086	1.80085	1.00086	0.19323	0.99323	1.79322	0.99323	-0.14115	0.00000	0.14115	0.00000	0.85971	1.00086	1.14201	1.00086	1.14165	1.00086	0.86006	1.00086	2.14079	2.00000	1.85920	2.00000	1.85837	2.00000	2.14162	2.00000	0.85160	0.99323	1.13485	0.99323	0.14211	0.00000	-0.14211	0.00000	1.13534	0.99323	0.85112	0.99323	
0.80000	0.00000	-0.80000	0.00000	0.80671	0.00671	-0.79329	0.00671	1.00009	0.99703	0.99398	0.99703	-0.99991	-1.00296	-1.00601	-1.00296	0.14169	0.00000	-0.14169	0.00000	1.13873	0.99703	0.85534	0.99703	1.13908	0.99703	0.85499	0.99703	0.14876	0.00671	-0.13534	0.00671	0.14793	0.00671	-0.13451	0.00671	-0.86174	-1.00296	-1.14418	-1.00296	0.14073	0.00000	-0.14073	0.00000	-0.86223	-1.00296	-1.14369	-1.00296	
0.00000	0.80000	0.00000	-0.80000	0.00000	0.80000	0.00000	-0.80000	0.00000	0.80000	0.00000	-0.80000	0.00000	0.80000	0.00000	-0.80000	0.00000	0.20000	0.00000	-0.20000	0.00000	0.20000	0.00000	-0.20000	0.00000	0.20000	0.00000	-0.20000	0.00000	0.20000	0.00000	-0.20000	0.00000	0.20000	0.00000	-0.20000	0.00000	0.20000	0.00000	-0.20000	0.00000	0.20000	0.00000	-0.20000	0.00000	0.20000	0.00000	-0.20000	
       43.60320	       21.89681	        0.00000	        0.00000	      -61.58486	        0.00000	
0.00000	0.00000	0.00000	0.00000	0.00671	0.00671	0.00671	0.00671	0.00309	0.00309	0.00309	0.00309	0.00739	0.00739	0.00739	0.00739	0.00000	0.00000	0.00000	0.00000	0.00309	0.00309	0.00309	0.00309	0.00309	0.00309	0.00309	0.00309	0.00671	0.00671	0.00671	0.00671	0.00671	0.00671	0.00671	0.00671	0.00739	0.00739	0.00739	0.00739	0.00000	0.00000	0.00000	0.00000	0.00739	0.00739	0.00739	0.00739	
1 2 3 4
5 6 7 8
9 10 11 12
13 14 15 16
17 18 19 20
21 22 23 24
25 26 27 28
29 30 31 32
33 34 35 36
37 38 39 40
41 42 43 44
45 46 47 48
Title="tecplot data for time step 4"
variables ="x","y","z","f","d"
ZONE N =48,E =6,datapacking=block
varlocation=([4,6]=cellcentered)
zonetype=febrick
-0.00556	0.00000	0.00556	0.00000	1.99440	1.99996	2.00553	1.99996	0.20121	1.00119	1.80117	1.00119	0.18608	0.98606	1.78604	0.98606	-0.14088	0.00000	0.14088	0.00000	0.86031	1.00119	1.14207	1.00119	1.14124	1.00119	0.86114	1.00119	2.14001	1.99996	1.85991	1.99996	1.85810	1.99996	2.14183	1.99996	0.84420	0.98606	1.12792	0.98606	0.14286	0.00000	-0.14286	0.00000	1.12891	0.98606	0.84320	0.98606	
0.79998	0.00000	-0.79998	0.00000	0.81389	0.01391	-0.78607	0.01391	0.99963	0.99358	0.98753	0.99358	-1.00032	-1.00637	-1.01242	-1.00637	0.14196	0.00000	-0.14196	0.00000	1.13554	0.99358	0.85162	0.99358	1.13636	0.99358	0.85080	0.99358	0.15669	0.01391	-0.12887	0.01391	0.15489	0.01391	-0.12707	0.01391	-0.86539	-1.00637	-1.14735	-1.00637	0.13997	0.00000	-0.13997	0.00000	-0.86640	-1.00637	-1.14634	-1.00637	
0.00000	0.80000	0.00000	-0.80000	0.00000	0.80000	0.00000	-0.80000	0.00000	0.80000	0.00000	-0.80000	0.00000	0.80000	0.00000	-0.80000	0.00000	0.20000	0.00000	-0.20000	0.00000	0.20000	0.00000	-0.20000	0.00000	0.20000	0.00000	-0.20000	0.00000	0.20000	0.00000	-0.20000	0.00000	0.20000	0.00000	-0.20000	0.00000	0.20000	0.00000	-0.20000	0.00000	0.20000	0.00000	-0.20000	0.00000	0.20000	0.00000	-0.20000	
       54.91477	       27.62566	        0.00000	        0.00000	      -77.26805	        0.00000	
0.00000	0.00000	0.00000	0.00000	0.01391	0.01391	0.01391	0.01391	0.00653	0.00653	0.00653	0.00653	0.01533	0.01533	0.01533	0.01533	0.00000	0.00000	0.00000	0.00000	0.00653	0.00653	0.00653	0.00653	0.00653	0.00653	0.00653	0.00653	0.01391	0.01391	0.01391	0.01391	0.01391	0.01391	0.01391	0.01391	0.01533	0.01533	0.01533	0.01533	0.00000	0.00000	0.00000	0.00000	0.01533	0.01533	0.01533	0.01533	
1 2 3 4
5 6 7 8
9 10 11 12
13 14 15 16
17 18 19 20
21 22 23 24
25 26 27 28
29 30 31 32
33 34 35 36
37 38 39 40
41 42 43 44
45 46 47 48
Title="tecplot data for time step 5"
variables ="x","y","z","f","d"
ZONE N =48,E =6,datapacking=block
varlocation=([4,6]=cellcentered)
zonetype=febrick
-0.00905	0.00000	0.00905	0.00000	1.99083	1.99988	2.00894	1.99988	0.20146	1.00140	1.80134	1.00140	0.17744	0.97739	1.77733	0.97739	-0.14056	0.00000	0.14056	0.00000	0.86084	1.00140	1.14196	1.00140	1.14051	1.00140	0.86229	1.00140	2.13899	1.99988	1.86077	1.99988	1.85772	1.99988	2.14204	1.99988	0.83523	0.97739	1.11954	0.97739	0.14376	0.00000	-0.14376	0.00000	1.12115	0.97739	0.83362	0.97739	
0.79995	0.00000	-0.79995	0.00000	0.82258	0.02263	-0.77732	0.02263	0.99888	0.98928	0.97967	0.98928	-1.00098	-1.01059	-1.02019	-1.01059	0.14228	0.00000	-0.14228	0.00000	1.13156	0.98928	0.84700	0.98928	1.13297	0.98928	0.84558	0.98928	0.16633	0.02263	-0.12106	0.02263	0.16331	0.02263	-0.11805	0.02263	-0.86990	-1.01059	-1.15127	-1.01059	0.13904	0.00000	-0.13904	0.00000	-0.87155	-1.01059	-1.14963	-1.01059	
0.00000	0.80000	0.00000	-0.80000	0.00000	0.80000	0.00000	-0.80000	0.00000	0.80000	0.00000	-0.80000	0.00000	0.80000	0.00000	-0.80000	0.00000	0.20000	0.00000	-0.20000	0.00000	0.20000	0.00000	-0.20000	0.00000	0.20000	0.00000	-0.20000	0.00000	0.20000	0.00000	-0.20000	0.00000	0.20000	0.00000	-0.20000	0.00000	0.20000	0.00000	-0.20000	0.00000	0.20000	0.00000	-0.20000	0.00000	0.20000	0.00000	-0.20000	
       62.82156	       31.72835	        0.00000	        0.00000	      -88.17226	        0.00000	
0.00000	0.00000	0.00000	0.00000	0.02263	0.02263	0.02263	0.02263	0.01081	0.01081	0.01081	0.01081	0.02497	0.02497	0.02497	0.02497	0.00000	0.00000	0.00000	0.00000	0.01081	0.01081	0.01081	0.01081	0.01081	0.01081	0.01081	0.01081	0.02263	0.02263	0.02263	0.02263	0.02263	0.02263	0.02263	0.02263	0.02497	0.02497	0.02497	0.02497	0.00000	0.00000	0.00000	0.00000	0.02497	0.02497	0.02497	0.02497	
1 2 3 4
5 6 7 8
9 10 11 12
13 14 15 16
17 18 19 20
21 22 23 24
25 26 27 28
29 30 31 32
33 34 35 36
37 38 39 40
41 42 43 44
45 46 47 48
Title="tecplot data for time step 6"
variables ="x","y","z","f","d"
ZONE N =48,E =6,datapacking=block
varlocation=([4,6]=cellcentered)
zonetype=febrick
-0.01305	0.00000	0.01305	0.00000	1.98670	1.99974	2.01279	1.99974	0.20162	1.00150	1.80138	1.00150	0.16759	0.96748	1.76736	0.96748	-0.14019	0.00000	0.14019	0.00000	0.86131	1.00150	1.14169	1.00150	1.13950	1.00150	0.86350	1.00150	2.13775	1.99974	1.86174	1.99974	1.85725	1.99974	2.14224	1.99974	0.82499	0.96748	1.10997	0.96748	0.14480	0.00000	-0.14480	0.00000	1.11228	0.96748	0.82268	0.96748	
0.79989	0.00000	-0.79989	0.00000	0.83251	0.03262	-0.76728	0.03262	0.99786	0.98425	0.97064	0.98425	-1.00186	-1.01547	-1.02908	-1.01547	0.14264	0.00000	-0.14264	0.00000	1.12689	0.98425	0.84160	0.98425	1.12901	0.98425	0.83949	0.98425	0.17738	0.03262	-0.11214	0.03262	0.17296	0.03262	-0.10773	0.03262	-0.87513	-1.01547	-1.15581	-1.01547	0.13796	0.00000	-0.13796	0.00000	-0.87751	-1.01547	-1.15343	-1.01547	
0.00000	0.80000	0.00000	-0.80000	0.00000	0.80000	0.00000	-0.80000	0.00000	0.80000	0.00000	-0.80000	0.00000	0.80000	0.00000	-0.80000	0.00000	0.20000	0.00000	-0.20000	0.00000	0.20000	0.00000	-0.20000	0.00000	0.20000	0.00000	-0.20000	0.00000	0.20000	0.00000	-0.20000	0.00000	0.20000	0.00000	-0.20000	0.00000	0.20000	0.00000	-0.20000	0.00000	0.20000	0.00000	-0.20000	0.00000	0.20000	0.00000	-0.20000	
       68.26757	       34.63247	        0.00000	        0.00000	      -95.55636	        0.00000	
0.00000	0.00000	0.00000	0.00000	0.03262	0.03262	0.03262	0.03262	0.01582	0.01582	0.01582	0.01582	0.03601	0.03601	0.03601	0.03601	0.00000	0.00000	0.00000	0.00000	0.01582	0.01582	0.01582	0.01582	0.01582	0.01582	0.01582	0.01582	0.03262	0.03262	0.03262	0.03262	0.03262	0.03262	0.03262	0.03262	0.03601	0.03601	0.03601	0.03601	0.00000	0.00000	0.00000	0.00000	0.03601	0.03601	0.03601	0.03601	
1 2 3 4
5 6 7 8
9 10 11 12
13 14 15 16
17 18 19 20
21 22 23 24
25 26 27 28
29 30 31 32
33 34 35 36
37 38 39 40
41 42 43 44
45 46 47 48
Title="tecplot data for time step 7"
variables ="x","y","z","f","d"
ZONE N =48,E =6,datapacking=block
varlocation=([4,6]=cellcentered)
zonetype=febrick
-0.01727	0.00000	0.01727	0.00000	1.98227	1.99954	2.01682	1.99954	0.20170	1.00151	1.80131	1.00151	0.15720	0.95701	1.75681	0.95701	-0.13979	0.00000	0.13979	0.00000	0.86171	1.00151	1.14130	1.00151	1.13829	1.00151	0.86472	1.00151	2.13633	1.99954	1.86276	1.99954	1.85670	1.99954	2.14239	1.99954	0.81416	0.95701	1.09985	0.95701	0.14590	0.00000	-0.14590	0.00000	1.10291	0.95701	0.81111	0.95701	
0.79981	0.00000	-0.79981	0.00000	0.84300	0.04319	-0.75663	0.04319	0.99663	0.97883	0.96103	0.97883	-1.00288	-1.02068	-1.03848	-1.02068	0.14303	0.00000	-0.14303	0.00000	1.12186	0.97883	0.83580	0.97883	1.12474	0.97883	0.83292	0.97883	0.18910	0.04319	-0.10272	0.04319	0.18317	0.04319	-0.09679	0.04319	-0.88070	-1.02068	-1.16066	-1.02068	0.13680	0.00000	-0.13680	0.00000	-0.88388	-1.02068	-1.15748	-1.02068	
0.00000	0.80000	0.00000	-0.80000	0.00000	0.80000	0.00000	-0.80000	0.00000	0.80000	0.00000	-0.80000	0.00000	0.80000	0.00000	-0.80000	0.00000	0.20000	0.00000	-0.20000	0.00000	0.20000	0.00000	-0.20000	0.00000	0.20000	0.00000	-0.20000	0.00000	0.20000	0.00000	-0.20000	0.00000	0.20000	0.00000	-0.20000	0.00000	0.20000	0.00000	-0.20000	0.00000	0.20000	0.00000	-0.20000	0.00000	0.20000	0.00000	-0.20000	
       71.62517	       36.50190	        0.00000	        0.00000	      -99.97552	        0.00000	
0.00000	0.00000	0.00000	0.00000	0.04319	0.04319	0.04319	0.04319	0.02122	0.02122	0.02122	0.02122	0.04771	0.04771	0.04771	0.04771	0.00000	0.00000	0.00000	0.00000	0.02122	0.02122	0.02122	0.02122	0.02122	0.02122	0.02122	0.02122	0.04319	0.04319	0.04319	0.04319	0.04319	0.04319	0.04319	0.04319	0.04771	0.04771	0.04771	0.04771	0.00000	0.00000	0.00000	0.00000	0.04771	0.04771	0.04771	0.04771	
1 2 3 4
5 6 7 8
9 10 11 12
13 14 15 16
17 18 19 20
21 22 23 24
25 26 27 28
29 30 31 32
33 34 35 36
37 38 39 40
41 42 43 44
45 46 47 48
Title="tecplot data for time step 8"
variables ="x","y","z","f","d"
ZONE N =48,E =6,datapacking=block
varlocation=([4,6]=cellcentered)
zonetype=febrick
-0.02173	0.00000	0.02173	0.00000	1.97754	1.99927	2.02100	1.99927	0.20173	1.00143	1.80112	1.00143	0.14630	0.94600	1.74569	0.94600	-0.13937	0.00000	0.13937	0.00000	0.86205	1.00143	1.14080	1.00143	1.13689	1.00143	0.86596	1.00143	2.13474	1.99927	1.86381	1.99927	1.85606	1.99927	2.14249	1.99927	0.80278	0.94600	1.08921	0.94600	0.14705	0.00000	-0.14705	0.00000	1.09305	0.94600	0.79894	0.94600	
0.79970	0.00000	-0.79970	0.00000	0.85403	0.05433	-0.74538	0.05433	0.99521	0.97304	0.95086	0.97304	-1.00403	-1.02620	-1.04838	-1.02620	0.14344	0.00000	-0.14344	0.00000	1.11648	0.97304	0.82960	0.97304	1.12017	0.97304	0.82590	0.97304	0.20146	0.05433	-0.09281	0.05433	0.19393	0.05433	-0.08528	0.05433	-0.88660	-1.02620	-1.16581	-1.02620	0.13556	0.00000	-0.13556	0.00000	-0.89065	-1.02620	-1.16176	-1.02620	
0.00000	0.80000	0.00000	-0.80000	0.00000	0.80000	0.00000	-0.80000	0.00000	0.80000	0.00000	-0.80000	0.00000	0.80000	0.00000	-0.80000	0.00000	0.20000	0.00000	-0.20000	0.00000	0.20000	0.00000	-0.20000	0.00000	0.20000	0.00000	-0.20000	0.00000	0.20000	0.00000	-0.20000	0.00000	0.20000	0.00000	-0.20000	0.00000	0.20000	0.00000	-0.20000	0.00000	0.20000	0.00000	-0.20000	0.00000	0.20000	0.00000	-0.20000	
       73.41952	       37.59191	        0.00000	        0.00000	     -102.18503	        0.00000	
0.00000	0.00000	0.00000	0.00000	0.05433	0.05433	0.05433	0.05433	0.02700	0.02700	0.02700	0.02700	0.06003	0.06003	0.06003	0.06003	0.00000	0.00000	0.00000	0.00000	0.02700	0.02700	0.02700	0.02700	0.02700	0.02700	0.02700	0.02700	0.05433	0.05433	0.05433	0.05433	0.05433	0.05433	0.05433	0.05433	0.06003	0.06003	0.06003	0.06003	0.00000	0.00000	0.00000	0.00000	0.06003	0.06003	0.06003	0.06003	
1 2 3 4
5 6 7 8
9 10 11 12
13 14 15 16
17 18 19 20
21 22 23 24
25 26 27 28
29 30 31 32
33 34 35 36
37 38 39 40
41 42 43 44
45 46 47 48
Title="tecplot data for time step 9"
variables ="x","y","z","f","d"
ZONE N =48,E =6,datapacking=block
varlocation=([4,6]=cellcentered)
zonetype=febrick
-0.02620	0.00000	0.02620	0.00000	1.97274	1.99894	2.02513	1.99894	0.20172	1.00128	1.80084	1.00128	0.13543	0.93499	1.73455	0.93499	-0.13895	0.00000	0.13895	0.00000	0.86233	1.00128	1.14022	1.00128	1.13538	1.00128	0.86717	1.00128	2.13304	1.99894	1.86484	1.99894	1.85535	1.99894	2.14252	1.99894	0.79141	0.93499	1.07858	0.93499	0.14820	0.00000	-0.14820	0.00000	1.08319	0.93499	0.78679	0.93499	
0.79957	0.00000	-0.79957	0.00000	0.86506	0.06549	-0.73408	0.06549	0.99366	0.96715	0.94063	0.96715	-1.00525	-1.03176	-1.05828	-1.03176	0.14385	0.00000	-0.14385	0.00000	1.11100	0.96715	0.82330	0.96715	1.11553	0.96715	0.81877	0.96715	0.21387	0.06549	-0.08289	0.06549	0.20471	0.06549	-0.07374	0.06549	-0.89254	-1.03176	-1.17099	-1.03176	0.13430	0.00000	-0.13430	0.00000	-0.89746	-1.03176	-1.16606	-1.03176	
0.00000	0.80000	0.00000	-0.80000	0.00000	0.80000	0.00000	-0.80000	0.00000	0.80000	0.00000	-0.80000	0.00000	0.80000	0.00000	-0.80000	0.00000	0.20000	0.00000	-0.20000	0.00000	0.20000	0.00000	-0.20000	0.00000	0.20000	0.00000	-0.20000	0.00000	0.20000	0.00000	-0.20000	0.00000	0.20000	0.00000	-0.20000	0.00000	0.20000	0.00000	-0.20000	0.00000	0.20000	0.00000	-0.20000	0.00000	0.20000	0.00000	-0.20000	
       73.95075	       38.03378	        0.00000	        0.00000	     -102.62872	        0.00000	
0.00000	0.00000	0.00000	0.00000	0.06550	0.06550	0.06550	0.06550	0.03288	0.03288	0.03288	0.03288	0.07235	0.07235	0.07235	0.07235	0.00000	0.00000	0.00000	0.00000	0.03288	0.03288	0.03288	0.03288	0.03288	0.03288	0.03288	0.03288	0.06550	0.06550	0.06550	0.06550	0.06550	0.06550	0.06550	0.06550	0.07235	0.07235	0.07235	0.07235	0.00000	0.00000	0.00000	0.00000	0.07235	0.07235	0.07235	0.07235	
1 2 3 4
5 6 7 8
9 10 11 12
13 14 15 16
17 18 19 20
21 22 23 24
25 26 27 28
29 30 31 32
33 34 35 36
37 38 39 40
41 42 43 44
45 46 47 48
Title="tecplot data for time step 10"
variables ="x","y","z","f","d"
ZONE N =48,E =6,datapacking=block
varlocation=([4,6]=cellcentered)
zonetype=febrick
-0.03072	0.00000	0.03072	0.00000	1.96782	1.99854	2.02925	1.99854	0.20166	1.00106	1.80046	1.00106	0.12447	0.92387	1.72328	0.92387	-0.13851	0.00000	0.13851	0.00000	0.86255	1.00106	1.13957	1.00106	1.13374	1.00106	0.86838	1.00106	2.13121	1.99854	1.86586	1.99854	1.85458	1.99854	2.14249	1.99854	0.77992	0.92387	1.06782	0.92387	0.14936	0.00000	-0.14936	0.00000	1.07323	0.92387	0.77451	0.92387	
0.79941	0.00000	-0.79941	0.00000	0.87620	0.07679	-0.72262	0.07679	0.99198	0.96111	0.93023	0.96111	-1.00654	-1.03741	-1.06829	-1.03741	0.14427	0.00000	-0.14427	0.00000	1.10538	0.96111	0.81684	0.96111	1.11076	0.96111	0.81145	0.96111	0.22645	0.07679	-0.07286	0.07679	0.21564	0.07679	-0.06205	0.07679	-0.89857	-1.03741	-1.17626	-1.03741	0.13301	0.00000	-0.13301	0.00000	-0.90440	-1.03741	-1.17042	-1.03741	
0.00000	0.80000	0.00000	-0.80000	0.00000	0.80000	0.00000	-0.80000	0.00000	0.80000	0.00000	-0.80000	0.00000	0.80000	0.00000	-0.80000	0.00000	0.20000	0.00000	-0.20000	0.00000	0.20000	0.00000	-0.20000	0.00000	0.20000	0.00000	-0.20000	0.00000	0.20000	0.00000	-0.20000	0.00000	0.20000	0.00000	-0.20000	0.00000	0.20000	0.00000	-0.20000	0.00000	0.20000	0.00000	-0.20000	0.00000	0.20000	0.00000	-0.20000	
       73.51841	       37.97838	        0.00000	        0.00000	     -101.73624	        0.00000	
0.00000	0.00000	0.00000	0.00000	0.07681	0.07681	0.07681	0.07681	0.03891	0.03891	0.03891	0.03891	0.08482	0.08482	0.08482	0.08482	0.00000	0.00000	0.00000	0.00000	0.03891	0.03891	0.03891	0.03891	0.03891	0.03891	0.03891	0.03891	0.07681	0.07681	0.07681	0.07681	0.07681	0.07681	0.07681	0.07681	0.08482	0.08482	0.08482	0.08482	0.00000	0.00000	0.00000	0.00000	0.08482	0.08482	0.08482	0.08482	
1 2 3 4
5 6 7 8
9 10 11 12
13 14 15 16
17 18 19 20
21 22 23 24
25 26 27 28
29 30 31 32
33 34 35 36
37 38 39 40
41 42 43 44
45 46 47 48
Title="tecplot data for time step 11"
variables ="x","y","z","f","d"
ZONE N =48,E =6,datapacking=block
varlocation=([4,6]=cellcentered)
zonetype=febrick
-0.03512	0.00000	0.03512	0.00000	1.96297	1.99808	2.03320	1.99808	0.20156	1.00079	1.80002	1.00079	0.11385	0.91308	1.71231	0.91308	-0.13808	0.00000	0.13808	0.00000	0.86271	1.00079	1.13888	1.00079	1.13204	1.00079	0.86954	1.00079	2.12933	1.99808	1.86683	1.99808	1.85377	1.99808	2.14239	1.99808	0.76877	0.91308	1.05739	0.91308	0.15048	0.00000	-0.15048	0.00000	1.06356	0.91308	0.76260	0.91308	
0.79923	0.00000	-0.79923	0.00000	0.88702	0.08779	-0.71144	0.08779	0.99024	0.95516	0.92007	0.95516	-1.00784	-1.04293	-1.07801	-1.04293	0.14468	0.00000	-0.14468	0.00000	1.09984	0.95516	0.81048	0.95516	1.10607	0.95516	0.80425	0.95516	0.23870	0.08779	-0.06312	0.08779	0.22627	0.08779	-0.05068	0.08779	-0.90445	-1.04293	-1.18140	-1.04293	0.13174	0.00000	-0.13174	0.00000	-0.91118	-1.04293	-1.17467	-1.04293	
0.00000	0.80000	0.00000	-0.80000	0.00000	0.80000	0.00000	-0.80000	0.00000	0.80000	0.00000	-0.80000	0.00000	0.80000	0.00000	-0.80000	0.00000	0.20000	0.00000	-0.20000	0.00000	0.20000	0.00000	-0.20000	0.00000	0.20000	0.00000	-0.20000	0.00000	0.20000	0.00000	-0.20000	0.00000	0.20000	0.00000	-0.20000	0.00000	0.20000	0.00000	-0.20000	0.00000	0.20000	0.00000	-0.20000	0.00000	0.20000	0.00000	-0.20000	
       72.36623	       37.53814	        0.00000	        0.00000	      -99.86466	        0.00000	
0.00000	0.00000	0.00000	0.00000	0.08781	0.08781	0.08781	0.08781	0.04485	0.04485	0.04485	0.04485	0.09694	0.09694	0.09694	0.09694	0.00000	0.00000	0.00000	0.00000	0.04485	0.04485	0.04485	0.04485	0.04485	0.04485	0.04485	0.04485	0.08781	0.08781	0.08781	0.08781	0.08781	0.08781	0.08781	0.08781	0.09694	0.09694	0.09694	0.09694	0.00000	0.00000	0.00000	0.00000	0.09694	0.09694	0.09694	0.09694	
1 2 3 4
5 6 7 8
9 10 11 12
13 14 15 16
17 18 19 20
21 22 23 24
25 26 27 28
29 30 31 32
33 34 35 36
37 38 39 40
41 42 43 44
45 46 47 48
Title="tecplot data for time step 12"
variables ="x","y","z","f","d"
ZONE N =48,E =6,datapacking=block
varlocation=([4,6]=cellcentered)
zonetype=febrick
-0.03948	0.00000	0.03948	0.00000	1.95810	1.99757	2.03705	1.99757	0.20144	1.00048	1.79952	1.00048	0.10338	0.90241	1.70145	0.90241	-0.13765	0.00000	0.13765	0.00000	0.86283	1.00048	1.13813	1.00048	1.13027	1.00048	0.87069	1.00048	2.12737	1.99757	1.86778	1.99757	1.85292	1.99757	2.14223	1.99757	0.75776	0.90241	1.04707	0.90241	0.15158	0.00000	-0.15158	0.00000	1.05399	0.90241	0.75083	0.90241	
0.79903	0.00000	-0.79903	0.00000	0.89771	0.09869	-0.70034	0.09869	0.98842	0.94919	0.90997	0.94919	-1.00918	-1.04841	-1.08763	-1.04841	0.14509	0.00000	-0.14509	0.00000	1.09429	0.94919	0.80410	0.94919	1.10136	0.94919	0.79703	0.94919	0.25085	0.09869	-0.05347	0.09869	0.23680	0.09869	-0.03942	0.09869	-0.91030	-1.04841	-1.18652	-1.04841	0.13047	0.00000	-0.13047	0.00000	-0.91794	-1.04841	-1.17888	-1.04841	
0.00000	0.80000	0.00000	-0.80000	0.00000	0.80000	0.00000	-0.80000	0.00000	0.80000	0.00000	-0.80000	0.00000	0.80000	0.00000	-0.80000	0.00000	0.20000	0.00000	-0.20000	0.00000	0.20000	0.00000	-0.20000	0.00000	0.20000	0.00000	-0.20000	0.00000	0.20000	0.00000	-0.20000	0.00000	0.20000	0.00000	-0.20000	0.00000	0.20000	0.00000	-0.20000	0.00000	0.20000	0.00000	-0.20000	0.00000	0.20000	0.00000	-0.20000	
       70.65302	       36.79478	        0.00000	        0.00000	      -97.23468	        0.00000	
0.00000	0.00000	0.00000	0.00000	0.09872	0.09872	0.09872	0.09872	0.05081	0.05081	0.05081	0.05081	0.10893	0.10893	0.10893	0.10893	0.00000	0.00000	0.00000	0.00000	0.05081	0.05081	0.05081	0.05081	0.05081	0.05081	0.05081	0.05081	0.09872	0.09872	0.09872	0.09872	0.09872	0.09872	0.09872	0.09872	0.10893	0.10893	0.10893	0.10893	0.00000	0.00000	0.00000	0.00000	0.10893	0.10893	0.10893	0.10893	
1 2 3 4
5 6 7 8
9 10 11 12
13 14 15 16
17 18 19 20
21 22 23 24
25 26 27 28
29 30 31 32
33 34 35 36
37 38 39 40
41 42 43 44
45 46 47 48
Title="tecplot data for time step 13"
variables ="x","y","z","f","d"
ZONE N =48,E =6,datapacking=block
varlocation=([4,6]=cellcentered)
zonetype=febrick
-0.04364	0.00000	0.04364	0.00000	1.95339	1.99703	2.04068	1.99703	0.20130	1.00014	1.79897	1.00014	0.09340	0.89224	1.69107	0.89224	-0.13724	0.00000	0.13724	0.00000	0.86290	1.00014	1.13737	1.00014	1.12850	1.00014	0.87177	1.00014	2.12539	1.99703	1.86867	1.99703	1.85204	1.99703	2.14202	1.99703	0.74725	0.89224	1.03723	0.89224	0.15263	0.00000	-0.15263	0.00000	1.04487	0.89224	0.73961	0.89224	
0.79881	0.00000	-0.79881	0.00000	0.90792	0.10911	-0.68970	0.10911	0.98659	0.94343	0.90027	0.94343	-1.01050	-1.05366	-1.09682	-1.05366	0.14549	0.00000	-0.14549	0.00000	1.08892	0.94343	0.79795	0.94343	1.09681	0.94343	0.79006	0.94343	0.26248	0.10911	-0.04426	0.10911	0.24687	0.10911	-0.02865	0.10911	-0.91590	-1.05366	-1.19142	-1.05366	0.12925	0.00000	-0.12925	0.00000	-0.92442	-1.05366	-1.18291	-1.05366	
0.00000	0.80000	0.00000	-0.80000	0.00000	0.80000	0.00000	-0.80000	0.00000	0.80000	0.00000	-0.80000	0.00000	0.80000	0.00000	-0.80000	0.00000	0.20000	0.00000	-0.20000	0.00000	0.20000	0.00000	-0.20000	0.00000	0.20000	0.00000	-0.20000	0.00000	0.20000	0.00000	-0.20000	0.00000	0.20000	0.00000	-0.20000	0.00000	0.20000	0.00000	-0.20000	0.00000	0.20000	0.00000	-0.20000	0.00000	0.20000	0.00000	-0.20000	
       68.57870	       35.84535	        0.00000	        0.00000	      -94.13510	        0.00000	
0.00000	0.00000	0.00000	0.00000	0.10915	0.10915	0.10915	0.10915	0.05657	0.05657	0.05657	0.05657	0.12039	0.12039	0.12039	0.12039	0.00000	0.00000	0.00000	0.00000	0.05657	0.05657	0.05657	0.05657	0.05657	0.05657	0.05657	0.05657	0.10915	0.10915	0.10915	0.10915	0.10915	0.10915	0.10915	0.10915	0.12039	0.12039	0.12039	0.12039	0.00000	0.00000	0.00000	0.00000	0.12039	0.12039	0.12039	0.12039	
1 2 3 4
5 6 7 8
9 10 11 12
13 14 15 16
17 18 19 20
21 22 23 24
25 26 27 28
29 30 31 32
33 34 35 36
37 38 39 40
41 42 43 44
45 46 47 48
Title="tecplot data for time step 14"
variables ="x","y","z","f","d"
ZONE N =48,E =6,datapacking=block
varlocation=([4,6]=cellcentered)
zonetype=febrick
-0.04772	0.00000	0.04772	0.00000	1.94873	1.99645	2.04417	1.99645	0.20114	0.99976	1.79838	0.99976	0.08369	0.88231	1.68093	0.88231	-0.13682	0.00000	0.13682	0.00000	0.86294	0.99976	1.13659	0.99976	1.12668	0.99976	0.87284	0.99976	2.12337	1.99645	1.86953	1.99645	1.85114	1.99645	2.14176	1.99645	0.73700	0.88231	1.02762	0.88231	0.15365	0.00000	-0.15365	0.00000	1.03596	0.88231	0.72866	0.88231	
0.79858	0.00000	-0.79858	0.00000	0.91787	0.11930	-0.67928	0.11930	0.98472	0.93774	0.89076	0.93774	-1.01184	-1.05882	-1.10579	-1.05882	0.14587	0.00000	-0.14587	0.00000	1.08362	0.93774	0.79187	0.93774	1.09231	0.93774	0.78318	0.93774	0.27386	0.11930	-0.03527	0.11930	0.25672	0.11930	-0.01813	0.11930	-0.92139	-1.05882	-1.19624	-1.05882	0.12803	0.00000	-0.12803	0.00000	-0.93078	-1.05882	-1.18685	-1.05882	
0.00000	0.80000	0.00000	-0.80000	0.00000	0.80000	0.00000	-0.80000	0.00000	0.80000	0.00000	-0.80000	0.00000	0.80000	0.00000	-0.80000	0.00000	0.20000	0.00000	-0.20000	0.00000	0.20000	0.00000	-0.20000	0.00000	0.20000	0.00000	-0.20000	0.00000	0.20000	0.00000	-0.20000	0.00000	0.20000	0.00000	-0.20000	0.00000	0.20000	0.00000	-0.20000	0.00000	0.20000	0.00000	-0.20000	0.00000	0.20000	0.00000	-0.20000	
       66.21014	       34.72705	        0.00000	        0.00000	      -90.65404	        0.00000	
0.00000	0.00000	0.00000	0.00000	0.11935	0.11935	0.11935	0.11935	0.06226	0.06226	0.06226	0.06226	0.13157	0.13157	0.13157	0.13157	0.00000	0.00000	0.00000	0.00000	0.06226	0.06226	0.06226	0.06226	0.06226	0.06226	0.06226	0.06226	0.11935	0.11935	0.11935	0.11935	0.11935	0.11935	0.11935	0.11935	0.13157	0.13157	0.13157	0.13157	0.00000	0.00000	0.00000	0.00000	0.13157	0.13157	0.13157	0.13157	
1 2 3 4
5 6 7 8
9 10 11 12
13 14 15 16
17 18 19 20
21 22 23 24
25 26 27 28
29 30 31 32
33 34 35 36
37 38 39 40
41 42 43 44
45 46 47 48
Title="tecplot data for time step 15"
variables ="x","y","z","f","d"
ZONE N =48,E =6,datapacking=block
varlocation=([4,6]=cellcentered)
zonetype=febrick
-0.05157	0.00000	0.05157	0.00000	1.94428	1.99585	2.04742	1.99585	0.20097	0.99937	1.79777	0.99937	0.07454	0.87294	1.67134	0.87294	-0.13643	0.00000	0.13643	0.00000	0.86294	0.99937	1.13580	0.99937	1.12490	0.99937	0.87384	0.99937	2.12138	1.99585	1.87032	1.99585	1.85024	1.99585	2.14146	1.99585	0.72732	0.87294	1.01855	0.87294	0.15460	0.00000	-0.15460	0.00000	1.02754	0.87294	0.71833	0.87294	
0.79834	0.00000	-0.79834	0.00000	0.92727	0.12893	-0.66940	0.12893	0.98288	0.93231	0.88173	0.93231	-1.01313	-1.06370	-1.11428	-1.06370	0.14624	0.00000	-0.14624	0.00000	1.07855	0.93231	0.78606	0.93231	1.08801	0.93231	0.77660	0.93231	0.28464	0.12893	-0.02677	0.12893	0.26604	0.12893	-0.00817	0.12893	-0.92660	-1.06370	-1.20080	-1.06370	0.12688	0.00000	-0.12688	0.00000	-0.93683	-1.06370	-1.19058	-1.06370	
0.00000	0.80000	0.00000	-0.80000	0.00000	0.80000	0.00000	-0.80000	0.00000	0.80000	0.00000	-0.80000	0.00000	0.80000	0.00000	-0.80000	0.00000	0.20000	0.00000	-0.20000	0.00000	0.20000	0.00000	-0.20000	0.00000	0.20000	0.00000	-0.20000	0.00000	0.20000	0.00000	-0.20000	0.00000	0.20000	0.00000	-0.20000	0.00000	0.20000	0.00000	-0.20000	0.00000	0.20000	0.00000	-0.20000	0.00000	0.20000	0.00000	-0.20000	
       63.71033	       33.52295	        0.00000	        0.00000	      -87.02476	        0.00000	
0.00000	0.00000	0.00000	0.00000	0.12900	0.12900	0.12900	0.12900	0.06770	0.06770	0.06770	0.06770	0.14214	0.14214	0.14214	0.14214	0.00000	0.00000	0.00000	0.00000	0.06770	0.06770	0.06770	0.06770	0.06770	0.06770	0.06770	0.06770	0.12900	0.12900	0.12900	0.12900	0.12900	0.12900	0.12900	0.12900	0.14214	0.14214	0.14214	0.14214	0.00000	0.00000	0.00000	0.00000	0.14214	0.14214	0.14214	0.14214	
1 2 3 4
5 6 7 8
9 10 11 12
13 14 15 16
17 18 19 20
21 22 23 24
25 26 27 28
29 30 31 32
33 34 35 36
37 38 39 40
41 42 43 44
45 46 47 48
Title="tecplot data for time step 16"
variables ="x","y","z","f","d"
ZONE N =48,E =6,datapacking=block
varlocation=([4,6]=cellcentered)
zonetype=febrick
-0.05531	0.00000	0.05531	0.00000	1.93991	1.99522	2.05054	1.99522	0.20079	0.99896	1.79713	0.99896	0.06569	0.86387	1.66204	0.86387	-0.13604	0.00000	0.13604	0.00000	0.86292	0.99896	1.13500	0.99896	1.12310	0.99896	0.87482	0.99896	2.11936	1.99522	1.87108	1.99522	1.84932	1.99522	2.14113	1.99522	0.71796	0.86387	1.00977	0.86387	0.15553	0.00000	-0.15553	0.00000	1.01939	0.86387	0.70834	0.86387	